16
	Energy:      15.9029670
C        -23.31355       11.80137       -0.71051
C        -21.95791       11.54993       -0.43460
C        -21.47426       10.23295       -0.51747
C        -22.33142        9.18754       -0.87605
C        -23.67646        9.44700       -1.15127
C        -24.16716       10.75261       -1.06807
H        -23.71145       12.80668       -0.64993
H        -20.43629       10.01241       -0.30328
H        -21.95277        8.17550       -0.93883
H        -24.33847        8.63663       -1.42760
H        -25.20971       10.95224       -1.27956
C        -21.03697       12.67497       -0.04226
N        -19.96373       12.83234       -1.01357
H        -21.59099       13.63560        0.02734
Cu       -18.94593       14.44496       -0.50800
H        -19.31391       12.01870       -0.93348
