16
	Energy:      15.0267479
C        -17.07131        6.13046        0.45440
C        -16.25406        7.26260        0.61582
C        -16.52542        4.84466        0.51225
C        -15.15699        4.67425        0.73111
C        -14.87256        7.07825        0.83521
C        -14.33205        5.78947        0.89196
H        -13.27124        5.65554        1.06053
H        -14.73570        3.67823        0.77545
H        -14.20460        7.91938        0.96180
H        -18.13496        6.24474        0.28367
H        -17.16430        3.97995        0.38707
C        -16.90081        8.62895        0.54239
N        -15.95176        9.72036        0.73039
H        -17.69649        8.70475        1.31550
H        -17.37432        8.74500       -0.45532
H        -15.63490        9.71328        1.72761
