18
Properties=species:S:1:pos:R:3 energy=-1967.196362870513 pbc="F F F"
C       -1.92075700      -0.56085600      -1.00279900
C       -0.82501000       0.29236400      -1.10877300
C        0.33599900       0.03932900      -0.38500000
C        0.39060100      -1.09386100       0.44347200
C       -0.71007300      -1.94033200       0.55634600
C       -1.86956500      -1.66940800      -0.16466600
H       -2.81845000      -0.35424000      -1.57134600
H       -2.72475100      -2.32750600      -0.08238800
H       -0.87525500       1.16212900      -1.75258500
H        1.31877100      -1.34559100       0.95045500
H       -0.65259700      -2.81695500       1.18855200
C        1.48363800       1.01507800      -0.37329300
N        1.38093500       1.86137600       0.85776900
H        0.76118300       2.64894400       0.68357000
H        2.28599100       2.25493700       1.09913000
H        1.48081200       1.63994300      -1.26671200
H        2.43423000       0.48606100      -0.32176600
Cu       0.52429900       0.70858800       2.25003300
18
Properties=species:S:1:pos:R:3 energy=-1967.196353290282 pbc="F F F"
C       -1.92066700      -0.56480800      -1.00943200
C       -0.82633400       0.29067500      -1.11201100
C        0.33221100       0.04143700      -0.38309900
C        0.38559100      -1.08982500       0.44772400
C       -0.71393200      -1.93784400       0.55836000
C       -1.87079300      -1.67128100      -0.16855500
H       -2.81594100      -0.36187200      -1.58313400
H       -2.72472600      -2.33136300      -0.08896300
H       -0.87547300       1.15866400      -1.75830600
H        1.31233800      -1.33961700       0.95852900
H       -0.65769800      -2.81265100       1.19318700
C        1.47977400       1.01708000      -0.37357300
N        1.38717400       1.85891400       0.86123200
H        0.76241800       2.64448000       0.69589400
H        2.29342900       2.25579500       1.09269800
H        1.47041400       1.64591200      -1.26418500
H        2.43078500       0.48790300      -0.33163800
Cu       0.55143000       0.70840000       2.26526900
18
Properties=species:S:1:pos:R:3 energy=-1967.196325172001 pbc="F F F"
C       -1.92056800      -0.56610500      -1.01426000
C       -0.82648800       0.29000700      -1.11384400
C        0.33004500       0.04187400      -0.38141500
C        0.38145300      -1.08833500       0.45022900
C       -0.71767600      -1.93685500       0.55843700
C       -1.87243000      -1.67192500      -0.17243200
H       -2.81399900      -0.36447100      -1.59130400
H       -2.72599300      -2.33279300      -0.09527600
H       -0.87396900       1.15719900      -1.76137200
H        1.30662700      -1.33722500       0.96446500
H       -0.66303800      -2.81086700       1.19450500
C        1.47799700       1.01663700      -0.37270300
N        1.38937500       1.85802200       0.86246900
H        0.75245600       2.63516600       0.70332100
H        2.29324800       2.26736300       1.08165300
H        1.46698300       1.64635500      -1.26273600
H        2.42894200       0.48708600      -0.33331600
Cu       0.58703300       0.70886700       2.28357800
18
Properties=species:S:1:pos:R:3 energy=-1967.196288562314 pbc="F F F"
C       -1.92062800      -0.56775500      -1.01932300
C       -0.82693900       0.28918900      -1.11613900
C        0.32753900       0.04252600      -0.38002000
C        0.37700800      -1.08651300       0.45248500
C       -0.72141600      -1.93580300       0.55842900
C       -1.87410700      -1.67277000      -0.17635300
H       -2.81223500      -0.36767800      -1.59970700
H       -2.72721600      -2.33450100      -0.10140200
H       -0.87291600       1.15541500      -1.76507600
H        1.30060900      -1.33414200       0.97024500
H       -0.66809100      -2.80887500       1.19592800
C        1.47598900       1.01634600      -0.37180300
N        1.39150400       1.85707400       0.86391400
H        0.74377400       2.62664000       0.71088000
H        2.29310300       2.27753000       1.07164000
H        1.46363700       1.64711200      -1.26110900
H        2.42678300       0.48626700      -0.33488100
Cu       0.62360300       0.70993800       2.30228900
18
Properties=species:S:1:pos:R:3 energy=-1967.196268987995 pbc="F F F"
C       -1.92064200      -0.57011900      -1.02495100
C       -0.82759900       0.28798400      -1.11911100
C        0.32461100       0.04359200      -0.37881900
C        0.37229900      -1.08401600       0.45502600
C       -0.72525400      -1.93425900       0.55897300
C       -1.87573900      -1.67379500      -0.18016700
H       -2.81027200      -0.37220900      -1.60908900
H       -2.72824800      -2.33652800      -0.10722400
H       -0.87213600       1.15292400      -1.76989100
H        1.29436200      -1.33004900       0.97640700
H       -0.67313300      -2.80603500       1.19834500
C        1.47342900       1.01669900      -0.37116500
N        1.39434400       1.85565200       0.86597100
H        0.73765600       2.61905700       0.71986700
H        2.29424000       2.28497700       1.06307900
H        1.45867100       1.64941300      -1.25909500
H        2.42418600       0.48622600      -0.33835000
Cu       0.65922600       0.71048500       2.32019400
18
Properties=species:S:1:pos:R:3 energy=-1967.196240657858 pbc="F F F"
C       -1.92045000      -0.57303000      -1.03099400
C       -0.82822600       0.28642700      -1.12262200
C        0.32157900       0.04498600      -0.37775300
C        0.36763300      -1.08081000       0.45815300
C       -0.72910200      -1.93200700       0.56034100
C       -1.87721700      -1.67477200      -0.18364100
H       -2.80792900      -0.37783800      -1.61930500
H       -2.72905300      -2.33858700      -0.11249000
H       -0.87132900       1.14972400      -1.77567700
H        1.28822700      -1.32510000       0.98316900
H       -0.67836100      -2.80204300       1.20217400
C        1.47047200       1.01783600      -0.37098000
N        1.39807200       1.85352700       0.86863900
H        0.73375800       2.61187700       0.73065000
H        2.29669500       2.29000900       1.05583200
H        1.45175600       1.65349300      -1.25676600
H        2.42143200       0.48729400      -0.34434700
Cu       0.69204300       0.70901500       2.33561700
18
Properties=species:S:1:pos:R:3 energy=-1967.196209687782 pbc="F F F"
C       -1.92019100      -0.57537900      -1.03641100
C       -0.82865500       0.28522600      -1.12523700
C        0.31889300       0.04610800      -0.37617100
C        0.36328500      -1.07813200       0.46148000
C       -0.73284500      -1.93014400       0.56147900
C       -1.87859600      -1.67568000      -0.18717300
H       -2.80557900      -0.38237300      -1.62861100
H       -2.72977200      -2.34058900      -0.11820700
H       -0.87023100       1.14729100      -1.78002300
H        1.28235500      -1.32107300       0.99004500
H       -0.68369100      -2.79886700       1.20523100
C        1.46791600       1.01858500      -0.37063700
N        1.40151000       1.85189900       0.87072700
H        0.72877300       2.60425400       0.74041700
H        2.29819800       2.29672200       1.04767800
H        1.44562100       1.65643000      -1.25479600
H        2.41899300       0.48792600      -0.34935900
Cu       0.72401600       0.70779700       2.34956800
18
Properties=species:S:1:pos:R:3 energy=-1967.196167615945 pbc="F F F"
C       -1.92017000      -0.57648900      -1.04054800
C       -0.82907900       0.28493200      -1.12583400
C        0.31658400       0.04658700      -0.37357700
C        0.35926700      -1.07696200       0.46458600
C       -0.73641300      -1.92979900       0.56131100
C       -1.87991800      -1.67686000      -0.19133700
H       -2.80373600      -0.38445300      -1.63581600
H       -2.73041500      -2.34298900      -0.12551200
H       -0.86912900       1.14675000      -1.78106400
H        1.27658400      -1.31898100       0.99683000
H       -0.68889300      -2.79822700       1.20558000
C        1.46623500       1.01802600      -0.36954200
N        1.40398300       1.85185900       0.87144900
H        0.72129800       2.59628400       0.74702000
H        2.29752200       2.30738600       1.03716400
H        1.44223500       1.65601400      -1.25360500
H        2.41704400       0.48672800      -0.35067500
Cu       0.75700300       0.71019300       2.36357100
18
Properties=species:S:1:pos:R:3 energy=-1967.196106251814 pbc="F F F"
C       -1.92038500      -0.57712200      -1.04405100
C       -0.82963300       0.28494300      -1.12568000
C        0.31441500       0.04664500      -0.37078300
C        0.35553000      -1.07673400       0.46706700
C       -0.73970200      -1.93037100       0.56022200
C       -1.88122900      -1.67825400      -0.19576700
H       -2.80236900      -0.38543800      -1.64176200
H       -2.73112400      -2.34550800      -0.13315600
H       -0.86825500       1.14694200      -1.78079500
H        1.27093300      -1.31773000       1.00316600
H       -0.69366300      -2.79900700       1.20434900
C        1.46490400       1.01680200      -0.36805200
N        1.40588300       1.85245500       0.87164800
H        0.71349700       2.58876000       0.75198700
H        2.29589300       2.31888700       1.02622000
H        1.44026200       1.65413900      -1.25260600
H        2.41526700       0.48468400      -0.35012400
Cu       0.78977900       0.71590800       2.37811700
18
Properties=species:S:1:pos:R:3 energy=-1967.196037216322 pbc="F F F"
C       -1.92073800      -0.57770500      -1.04740300
C       -0.83021800       0.28484200      -1.12563800
C        0.31234100       0.04636500      -0.36837000
C        0.35202200      -1.07717600       0.46864300
C       -0.74277000      -1.93148200       0.55850400
C       -1.88260800      -1.67971600      -0.20019300
H       -2.80137500      -0.38607700      -1.64716300
H       -2.73210600      -2.34775400      -0.14034600
H       -0.86748800       1.14710300      -1.78051800
H        1.26539700      -1.31684800       1.00881400
H       -0.69807500      -2.80036300       1.20240300
C        1.46360200       1.01528700      -0.36636700
N        1.40729000       1.85309600       0.87188700
H        0.70592500       2.58162700       0.75638700
H        2.29374500       2.32981300       1.01575400
H        1.43877100       1.65201400      -1.25140600
H        2.41357300       0.48244000      -0.34883500
Cu       0.82271100       0.72453400       2.39384600
18
Properties=species:S:1:pos:R:3 energy=-1967.195964492042 pbc="F F F"
C       -1.92116800      -0.57842500      -1.05084800
C       -0.83081300       0.28451600      -1.12589800
C        0.31026500       0.04586100      -0.36625300
C        0.34851100      -1.07796500       0.46966300
C       -0.74579800      -1.93287900       0.55640200
C       -1.88408300      -1.68129700      -0.20469800
H       -2.80053200      -0.38676800      -1.65244200
H       -2.73331800      -2.34991000      -0.14723000
H       -0.86685100       1.14709900      -1.78047500
H        1.25968700      -1.31601100       1.01411200
H       -0.70233000      -2.80193400       1.20018600
C        1.46220200       1.01369400      -0.36457300
N        1.40852100       1.85364900       0.87229400
H        0.69884000       2.57481800       0.76082200
H        2.29146600       2.34003900       1.00574500
H        1.43727300       1.65002700      -1.24995100
H        2.41186000       0.48029500      -0.34742500
Cu       0.85626900       0.73519300       2.41057000
18
Properties=species:S:1:pos:R:3 energy=-1967.195896085292 pbc="F F F"
C       -1.92153400      -0.57935800      -1.05457200
C       -0.83140600       0.28405400      -1.12645500
C        0.30807900       0.04540300      -0.36424600
C        0.34471400      -1.07863000       0.47068000
C       -0.74903000      -1.93416900       0.55442100
C       -1.88563800      -1.68292600      -0.20925900
H       -2.79956400      -0.38779000      -1.65813700
H       -2.73459000      -2.35210800      -0.15414500
H       -0.86615600       1.14681900      -1.78088200
H        1.25354500      -1.31472600       1.01973600
H       -0.70675700      -2.80320400       1.19829300
C        1.46065000       1.01223400      -0.36274000
N        1.40987600       1.85408600       0.87293800
H        0.69188000       2.56773000       0.76597100
H        2.28905400       2.35010700       0.99580200
H        1.43543400       1.64840500      -1.24828100
H        2.41007300       0.47837200      -0.34633400
Cu       0.89137100       0.74570100       2.42720900
18
Properties=species:S:1:pos:R:3 energy=-1967.195817388816 pbc="F F F"
C       -1.92169100      -0.58056600      -1.05877300
C       -0.83186100       0.28343100      -1.12750800
C        0.30579000       0.04535100      -0.36219200
C        0.34048200      -1.07840900       0.47247600
C       -0.75262200      -1.93469500       0.55324000
C       -1.88722900      -1.68439100      -0.21373700
H       -2.79815400      -0.38951000      -1.66476300
H       -2.73577100      -2.35429900      -0.16107100
H       -0.86521300       1.14605800      -1.78221500
H        1.24688200      -1.31240500       1.02619500
H       -0.71164400      -2.80346900       1.19759200
C        1.45899100       1.01123500      -0.36110100
N        1.41151000       1.85416400       0.87392500
H        0.68464200       2.55973500       0.77263100
H        2.28643600       2.36037900       0.98589900
H        1.43294600       1.64756400      -1.24656300
H        2.40818400       0.47692800      -0.34614200
Cu       0.92832100       0.75289900       2.44210500
18
Properties=species:S:1:pos:R:3 energy=-1967.195745142903 pbc="F F F"
C       -1.92155600      -0.58190500      -1.06328800
C       -0.83207100       0.28269700      -1.12906200
C        0.30353500       0.04563600      -0.36029400
C        0.33609800      -1.07725500       0.47505400
C       -0.75640500      -1.93427200       0.55301800
C       -1.88872700      -1.68545600      -0.21783400
H       -2.79624000      -0.39176800      -1.67212200
H       -2.73680500      -2.35614800      -0.16762700
H       -0.86386100       1.14485400      -1.78448100
H        1.24021400      -1.30908000       1.03330000
H       -0.71696000      -2.80241000       1.19832500
C        1.45729000       1.01068200      -0.35981100
N        1.41320100       1.85379600       0.87513600
H        0.67690100       2.55057000       0.78070900
H        2.28321900       2.37075900       0.97632700
H        1.42996700       1.64751300      -1.24490300
H        2.40634100       0.47602100      -0.34690600
Cu       0.96586000       0.75576800       2.45445900
18
Properties=species:S:1:pos:R:3 energy=-1967.195674029258 pbc="F F F"
C       -1.92130000      -0.58318700      -1.06780400
C       -0.83207900       0.28189900      -1.13081400
C        0.30149100       0.04589800      -0.35864400
C        0.33202900      -1.07602000       0.47759800
C       -0.76011700      -1.93352700       0.55311600
C       -1.89018800      -1.68618900      -0.22157800
H       -2.79416800      -0.39407900      -1.67957900
H       -2.73790900      -2.35750900      -0.17355400
H       -0.86228100       1.14350800      -1.78702200
H        1.23415200      -1.30589400       1.03985900
H       -0.72239800      -2.80087600       1.19960300
C        1.45566900       1.01024400      -0.35864500
N        1.41463400       1.85312400       0.87647300
H        0.66899300       2.54088100       0.78910900
H        2.27937800       2.38086100       0.96719600
H        1.42691200       1.64775900      -1.24323400
H        2.40463300       0.47532200      -0.34795400
Cu       1.00255100       0.75778600       2.46587300
18
Properties=species:S:1:pos:R:3 energy=-1967.195597576798 pbc="F F F"
C       -1.92123800      -0.58421300      -1.07184600
C       -0.83217500       0.28120400      -1.13197000
C        0.29958400       0.04561000      -0.35687200
C        0.32848200      -1.07604000       0.47924600
C       -0.76356300      -1.93371400       0.55234000
C       -1.89178000      -1.68705100      -0.22536000
H       -2.79240900      -0.39568100      -1.68621300
H       -2.73940600      -2.35866500      -0.17933800
H       -0.86079800       1.14260100      -1.78855700
H        1.22884300      -1.30450200       1.04478700
H       -0.72758400      -2.80069100       1.19944100
C        1.45414100       1.00924700      -0.35708900
N        1.41564800       1.85290200       0.87764100
H        0.66153400       2.53218400       0.79612600
H        2.27527400       2.39077100       0.95803400
H        1.42439100       1.64712500      -1.24140700
H        2.40305200       0.47419500      -0.34784500
Cu       1.03800600       0.76471900       2.47888300
18
Properties=species:S:1:pos:R:3 energy=-1967.195526512645 pbc="F F F"
C       -1.92158100      -0.58470500      -1.07497800
C       -0.83251500       0.28081800      -1.13187900
C        0.29784200       0.04454200      -0.35471600
C        0.32543700      -1.07806800       0.47958500
C       -0.76666200      -1.93569800       0.54996800
C       -1.89356200      -1.68834200      -0.22945700
H       -2.79135800      -0.39591400      -1.69125200
H       -2.74131700      -2.35994900      -0.18541100
H       -0.85970500       1.14262300      -1.78800400
H        1.22415900      -1.30574400       1.04774700
H       -0.73211200      -2.80307000       1.19665100
C        1.45287400       1.00738200      -0.35477000
N        1.41609700       1.85377800       0.87829700
H        0.65482200       2.52550700       0.80046000
H        2.27103700       2.40061300       0.94852300
H        1.42312200       1.64467500      -1.23955000
H        2.40168200       0.47214400      -0.34545600
Cu       1.07174000       0.77940800       2.49424200
18
Properties=species:S:1:pos:R:3 energy=-1967.195453005886 pbc="F F F"
C       -1.92219500      -0.58488400      -1.07757800
C       -0.83304200       0.28063900      -1.13082100
C        0.29614800       0.04289400      -0.35207300
C        0.32250600      -1.08154500       0.47925600
C       -0.76968600      -1.93904500       0.54641000
C       -1.89552800      -1.69007700      -0.23404200
H       -2.79072300      -0.39515600      -1.69531900
H       -2.74354800      -2.36151700      -0.19216200
H       -0.85889700       1.14343200      -1.78575800
H        1.21950000      -1.30890600       1.04979300
H       -0.73639900      -2.80737600       1.19190100
C        1.45174600       1.00485000      -0.35182000
N        1.41619400       1.85553700       0.87854300
H        0.64841000       2.52016700       0.80307300
H        2.26662500       2.41080900       0.93838700
H        1.42266100       1.64082400      -1.23761300
H        2.40041700       0.46943700      -0.34129300
Cu       1.10581100       0.79991600       2.51111800
18
Properties=species:S:1:pos:R:3 energy=-1967.195394845835 pbc="F F F"
C       -1.92281200      -0.58499400      -1.08039700
C       -0.83358100       0.28054900      -1.12923300
C        0.29416500       0.04118100      -0.34854600
C        0.31900400      -1.08513300       0.47979100
C       -0.77312700      -1.94284200       0.54254000
C       -1.89758900      -1.69216400      -0.23939800
H       -2.78993200      -0.39409500      -1.69980800
H       -2.74579100      -2.36356700      -0.20036200
H       -0.85791400       1.14452500      -1.78267700
H        1.21386300      -1.31227200       1.05336800
H       -0.74129400      -2.81259000       1.18622900
C        1.45049200       1.00211400      -0.34839100
N        1.41643100       1.85794800       0.87861200
H        0.64131600       2.51438200       0.80611800
H        2.26160500       2.42250400       0.92661200
H        1.42203000       1.63622700      -1.23558500
H        2.39892500       0.46633400      -0.33645000
Cu       1.14420900       0.82189300       2.52757700
18
Properties=species:S:1:pos:R:3 energy=-1967.195320325829 pbc="F F F"
C       -1.92313500      -0.58554000      -1.08433700
C       -0.83407900       0.28032600      -1.12801700
C        0.29151900       0.04014700      -0.34415700
C        0.31418400      -1.08718600       0.48243000
C       -0.77752000      -1.94574200       0.53953500
C       -1.89964400      -1.69444300      -0.24559700
H       -2.78827200      -0.39397400      -1.70629000
H       -2.74753400      -2.36648900      -0.21048800
H       -0.85644400       1.14517700      -1.78042000
H        1.20601600      -1.31355900       1.06074700
H       -0.74746900      -2.81682600       1.18154900
C        1.44874100       0.99985300      -0.34492200
N        1.41749400       1.86027100       0.87897900
H        0.63314400       2.50628400       0.81233600
H        2.25573700       2.43627000       0.91294600
H        1.42012300       1.63214900      -1.23343800
H        2.39677400       0.46342600      -0.33266800
Cu       1.19036500       0.83985600       2.54181200
18
Properties=species:S:1:pos:R:3 energy=-1967.195233026781 pbc="F F F"
C       -1.92284000      -0.58740800      -1.09023800
C       -0.83453000       0.27952700      -1.12885000
C        0.28807100       0.04060400      -0.34009300
C        0.30782800      -1.08592300       0.48731400
C       -0.78291000      -1.94596700       0.53893900
C       -1.90149900      -1.69659700      -0.25187200
H       -2.78531800      -0.39679100      -1.71615400
H       -2.74831000      -2.37022600      -0.22120600
H       -0.85465400       1.14408200      -1.78173000
H        1.19592200      -1.31036300       1.07206400
H       -0.75486900      -2.81703900       1.18106400
C        1.44619700       0.99916200      -0.34234900
N        1.42011000       1.86091800       0.88069500
H        0.62529100       2.49502800       0.82434500
H        2.25002500       2.44970700       0.89979000
H        1.41547600       1.63133200      -1.23092100
H        2.39382300       0.46193800      -0.33308300
Cu       1.24218700       0.84801400       2.55228400
18
Properties=species:S:1:pos:R:3 energy=-1967.195116797401 pbc="F F F"
C       -1.92178100      -0.59115400      -1.09822100
C       -0.83481500       0.27765100      -1.13288000
C        0.28403800       0.04275700      -0.33756000
C        0.30055600      -1.08078800       0.49365500
C       -0.78885800      -1.94250600       0.54170000
C       -1.90298800      -1.69817700      -0.25700900
H       -2.78088900      -0.40392000      -1.72977600
H       -2.74806400      -2.37415500      -0.23029500
H       -0.85269700       1.14022300      -1.78844900
H        1.18496300      -1.30214800       1.08522100
H       -0.76305300      -2.81130100       1.18698100
C        1.44261600       1.00081500      -0.34156000
N        1.42444500       1.85858300       0.88441800
H        0.61990000       2.48149300       0.84263500
H        2.24615200       2.45918800       0.89074700
H        1.40685600       1.63619100      -1.22765300
H        2.39014900       0.46328700      -0.34019900
Cu       1.29347000       0.84396200       2.55824300
18
Properties=species:S:1:pos:R:3 energy=-1967.195005965557 pbc="F F F"
C       -1.92025600      -0.59653200      -1.10754500
C       -0.83505900       0.27466000      -1.13933800
C        0.27972100       0.04568000      -0.33659500
C        0.29325200      -1.07388900       0.49983400
C       -0.79488400      -1.93704900       0.54623000
C       -1.90437500      -1.69941600      -0.26098200
H       -2.77557900      -0.41437400      -1.74564800
H       -2.74769400      -2.37767300      -0.23684800
H       -0.85088800       1.13416200      -1.79896900
H        1.17465700      -1.29162800       1.09731800
H       -0.77151300      -2.80186700       1.19689100
C        1.43799600       1.00419000      -0.34192100
N        1.42987200       1.85396900       0.88978400
H        0.61820100       2.46844800       0.86416000
H        2.24506700       2.46348300       0.88627600
H        1.39485800       1.64564100      -1.22330800
H        2.38584200       0.46725400      -0.35230200
Cu       1.34078400       0.83494100       2.56296400
18
Properties=species:S:1:pos:R:3 energy=-1967.194876627963 pbc="F F F"
C       -1.91878000      -0.60246600      -1.11714500
C       -0.83553500       0.27133300      -1.14587800
C        0.27494400       0.04865900      -0.33541000
C        0.28571400      -1.06723300       0.50576400
C       -0.80089500      -1.93215200       0.55028200
C       -1.90580200      -1.70116000      -0.26520000
H       -2.77031600      -0.42549000      -1.76177400
H       -2.74757800      -2.38140700      -0.24321500
H       -0.84939800       1.12777400      -1.80950200
H        1.16405300      -1.28080600       1.10931000
H       -0.77987100      -2.79330500       1.20586900
C        1.43278100       1.00782300      -0.34202000
N        1.43610500       1.84937100       0.89543600
H        0.61896800       2.45703700       0.88584600
H        2.24584800       2.46602500       0.88228200
H        1.38172000       1.65570100      -1.21822800
H        2.38082100       0.47145500      -0.36501700
Cu       1.38722200       0.82884200       2.56860000
18
Properties=species:S:1:pos:R:3 energy=-1967.19473829838 pbc="F F F"
C       -1.91722500      -0.60832600      -1.12650900
C       -0.83596100       0.26806800      -1.15206600
C        0.27010600       0.05172800      -0.33379200
C        0.27799500      -1.06043900       0.51217700
C       -0.80688500      -1.92745100       0.55416600
C       -1.90711000      -1.70303200      -0.26952900
H       -2.76487800      -0.43642500      -1.77756900
H       -2.74732800      -2.38527600      -0.24977000
H       -0.84768400       1.12143400      -1.81970400
H        1.15292100      -1.26954000       1.12229800
H       -0.78813600      -2.78523900       1.21421800
C        1.42758100       1.01144800      -0.34205100
N        1.44268200       1.84496200       0.90078400
H        0.62025100       2.44555000       0.90747500
H        2.24671400       2.46890400       0.87805800
H        1.36841300       1.66558900      -1.21307200
H        2.37562800       0.47575800      -0.37778500
Cu       1.43291500       0.82228700       2.57267400
18
Properties=species:S:1:pos:R:3 energy=-1967.194630011598 pbc="F F F"
C       -1.91518700      -0.61441900      -1.13582700
C       -0.83577700       0.26438800      -1.15921300
C        0.26576600       0.05509800      -0.33306700
C        0.27070000      -1.05258000       0.51868300
C       -0.81254900      -1.92154800       0.55906100
C       -1.90811900      -1.70427800      -0.27279000
H       -2.75908400      -0.44794000      -1.79317000
H       -2.74694300      -2.38825600      -0.25438000
H       -0.84543400       1.11417400      -1.83141800
H        1.14227900      -1.25708300       1.13539500
H       -0.79610600      -2.77539700       1.22423400
C        1.42244900       1.01592700      -0.34279200
N        1.44906800       1.83964800       0.90628100
H        0.62184800       2.43322200       0.92962300
H        2.24738400       2.47055600       0.87605800
H        1.35460100       1.67703900      -1.20785600
H        2.37068900       0.48148500      -0.39210800
Cu       1.47441500       0.80996300       2.57328500
18
Properties=species:S:1:pos:R:3 energy=-1967.194450258752 pbc="F F F"
C       -1.91310700      -0.61996400      -1.14468600
C       -0.83526600       0.26082800      -1.16597900
C        0.26188800       0.05801400      -0.33232600
C        0.26366600      -1.04537700       0.52485800
C       -0.81817100      -1.91606200       0.56348100
C       -1.90920200      -1.70530900      -0.27603200
H       -2.75335100      -0.45840700      -1.80791000
H       -2.74693700      -2.39065300      -0.25879900
H       -0.84265500       1.10719000      -1.84248500
H        1.13147300      -1.24543200       1.14847500
H       -0.80419100      -2.76615100       1.23351700
C        1.41779700       1.01998200      -0.34322300
N        1.45461100       1.83477400       0.91131900
H        0.62197800       2.41981300       0.95097200
H        2.24610100       2.47380800       0.87364500
H        1.34192200       1.68740000      -1.20276500
H        2.36618800       0.48703000      -0.40491600
Cu       1.51725400       0.79851500       2.57285600
18
Properties=species:S:1:pos:R:3 energy=-1967.19429210826 pbc="F F F"
C       -1.91128400      -0.62434200      -1.15269800
C       -0.83462400       0.25792300      -1.17110100
C        0.25828900       0.05996800      -0.33061700
C        0.25657400      -1.03997900       0.53078400
C       -0.82401300      -1.91221800       0.56643200
C       -1.91058900      -1.70649500      -0.28014700
H       -2.74805500      -0.46632200      -1.82114800
H       -2.74738800      -2.39304800      -0.26499000
H       -0.83956400       1.10181800      -1.85070300
H        1.12013000      -1.23574300       1.16165400
H       -0.81272700      -2.75956100       1.23998400
C        1.41385100       1.02245600      -0.34265800
N        1.45903600       1.83135600       0.91534800
H        0.61947100       2.40516900       0.97053000
H        2.24137600       2.48102100       0.86843800
H        1.33187100       1.69425300      -1.19818600
H        2.36224500       0.49056000      -0.41378300
Cu       1.56539900       0.79318500       2.57286300
18
Properties=species:S:1:pos:R:3 energy=-1967.194124027763 pbc="F F F"
C       -1.90974500      -0.62768300      -1.15999000
C       -0.83400900       0.25569300      -1.17482800
C        0.25490800       0.06115300      -0.32821800
C        0.24953000      -1.03613000       0.53634900
C       -0.83006800      -1.90968600       0.56823400
C       -1.91223200      -1.70775500      -0.28492700
H       -2.74313500      -0.47219200      -1.83321800
H       -2.74816300      -2.39541600      -0.27257800
H       -0.83629000       1.09787200      -1.85656900
H        1.10887600      -1.22775700       1.17420400
H       -0.82167300      -2.75499200       1.24440000
C        1.41058400       1.02352600      -0.34121100